<?xml version="1.0" encoding="UTF-8"?>

<!-- generated on 2026-04-26T01:18:25.542448+02:00 by Eclipse SUMO sumo 1.26.0
<sumoConfiguration xmlns:xsi="http://www.w3.org/2001/XMLSchema-instance" xsi:noNamespaceSchemaLocation="http://sumo.dlr.de/xsd/sumoConfiguration.xsd">

    <input>
        <net-file value="/Users/hasanhaidar/Documents/GitHub/LightMind/baselines/traffic_networks/Debugging/cross_smoke/cross/cross.net.xml"/>
        <route-files value="/Users/hasanhaidar/Documents/GitHub/LightMind/baselines/traffic_networks/Debugging/cross_smoke/cross/cross.rou.xml"/>
        <additional-files value="/Users/hasanhaidar/Documents/GitHub/LightMind/baselines/traffic_networks/Debugging/cross_smoke/cross/cross.tls.add.xml,/Users/hasanhaidar/Documents/GitHub/LightMind/baselines/traffic_networks/Debugging/cross_smoke/input_additional.add.xml"/>
    </input>

    <time>
        <begin value="0"/>
        <end value="180"/>
        <step-length value=".2"/>
    </time>

    <report>
        <xml-validation value="never"/>
    </report>

    <traci_server>
        <remote-port value="54876"/>
    </traci_server>

    <random_number>
        <seed value="4"/>
    </random_number>

    <gui_only>
        <gui-settings-file value="/Users/hasanhaidar/Documents/GitHub/LightMind/baselines/traffic_networks/Debugging/cross_smoke/cross/cross.settings.xml"/>
    </gui_only>

</sumoConfiguration>
-->

<meandata xmlns:xsi="http://www.w3.org/2001/XMLSchema-instance" xsi:noNamespaceSchemaLocation="http://sumo.dlr.de/xsd/meandata_file.xsd">
    <interval begin="0.00" end="180.00" id="dump">
        <edge id="1fi" sampledSeconds="99.19" traveltime="2.88" overlapTraveltime="4.70" density="8.51" overlapDensity="13.54" laneDensity="8.51" occupancy="7.39" waitingTime="20.00" timeLoss="26.45" speed="10.61" speedRelative="0.76" departed="26" arrived="0" entered="0" left="26" laneChangedFrom="0" laneChangedTo="0" flow="432.73"/>
        <edge id="1fo" sampledSeconds="20.83" traveltime="2.88" overlapTraveltime="3.46" density="2.75" overlapDensity="2.84" laneDensity="2.75" occupancy="2.05" waitingTime="0.00" timeLoss="0.20" speed="14.14" speedRelative="1.02" departed="0" arrived="7" entered="7" left="0" laneChangedFrom="0" laneChangedTo="0" flow="140.00"/>
        <edge id="1o" sampledSeconds="73.91" traveltime="9.98" overlapTraveltime="10.57" density="2.86" overlapDensity="3.03" laneDensity="2.86" occupancy="2.32" waitingTime="0.00" timeLoss="3.36" speed="13.63" speedRelative="0.98" departed="0" arrived="0" entered="7" left="7" laneChangedFrom="0" laneChangedTo="0" flow="140.00"/>
        <edge id="1si" sampledSeconds="2573.94" traveltime="149.51" overlapTraveltime="156.54" density="105.34" overlapDensity="105.34" laneDensity="35.11" occupancy="21.95" waitingTime="2291.80" timeLoss="2412.94" speed="0.91" speedRelative="0.07" departed="0" arrived="0" entered="26" left="0" laneChangedFrom="0" laneChangedTo="0" flow="344.32"/>
        <edge id="2fi" sampledSeconds="81.82" traveltime="3.43" overlapTraveltime="3.82" density="8.21" overlapDensity="9.28" laneDensity="8.21" occupancy="4.98" waitingTime="0.00" timeLoss="2.38" speed="14.34" speedRelative="1.03" departed="24" arrived="0" entered="0" left="24" laneChangedFrom="0" laneChangedTo="0" flow="422.39"/>
        <edge id="2fo" sampledSeconds="17.59" traveltime="3.39" overlapTraveltime="3.73" density="1.92" overlapDensity="1.99" laneDensity="1.92" occupancy="0.94" waitingTime="0.00" timeLoss="0.15" speed="14.47" speedRelative="1.04" departed="0" arrived="5" entered="5" left="0" laneChangedFrom="0" laneChangedTo="0" flow="100.00"/>
        <edge id="2o" sampledSeconds="47.69" traveltime="9.19" overlapTraveltime="9.54" density="2.01" overlapDensity="2.08" laneDensity="2.01" occupancy="1.00" waitingTime="0.00" timeLoss="2.46" speed="13.85" speedRelative="1.00" departed="0" arrived="0" entered="5" left="5" laneChangedFrom="0" laneChangedTo="0" flow="100.00"/>
        <edge id="2si" sampledSeconds="2223.82" traveltime="124.81" overlapTraveltime="130.11" density="97.23" overlapDensity="97.23" laneDensity="32.41" occupancy="17.45" waitingTime="1956.80" timeLoss="2069.76" speed="1.02" speedRelative="0.07" departed="0" arrived="0" entered="24" left="0" laneChangedFrom="0" laneChangedTo="0" flow="356.36"/>
        <edge id="3fi" sampledSeconds="70.98" traveltime="3.24" overlapTraveltime="3.63" density="7.50" overlapDensity="8.55" laneDensity="7.50" occupancy="4.52" waitingTime="0.00" timeLoss="1.24" speed="14.27" speedRelative="1.03" departed="22" arrived="0" entered="0" left="22" laneChangedFrom="0" laneChangedTo="0" flow="384.85"/>
        <edge id="3fo" sampledSeconds="16.42" traveltime="3.21" overlapTraveltime="3.66" density="1.93" overlapDensity="1.98" laneDensity="1.93" occupancy="1.16" waitingTime="0.00" timeLoss="0.16" speed="14.36" speedRelative="1.03" departed="0" arrived="5" entered="5" left="0" laneChangedFrom="0" laneChangedTo="0" flow="100.00"/>
        <edge id="3o" sampledSeconds="48.83" traveltime="8.88" overlapTraveltime="9.33" density="2.01" overlapDensity="2.11" laneDensity="2.01" occupancy="1.29" waitingTime="0.00" timeLoss="0.42" speed="14.47" speedRelative="1.04" departed="0" arrived="0" entered="6" left="5" laneChangedFrom="0" laneChangedTo="0" flow="104.90"/>
        <edge id="3si" sampledSeconds="521.35" traveltime="24.28" overlapTraveltime="25.07" density="22.22" overlapDensity="22.53" laneDensity="11.11" occupancy="7.51" waitingTime="305.60" timeLoss="326.39" speed="5.40" speedRelative="0.39" departed="0" arrived="0" entered="22" left="17" laneChangedFrom="0" laneChangedTo="0" flow="423.34"/>
        <edge id="4fi" sampledSeconds="55.09" traveltime="3.25" overlapTraveltime="3.79" density="5.53" overlapDensity="6.63" laneDensity="5.53" occupancy="4.56" waitingTime="0.00" timeLoss="0.71" speed="14.20" speedRelative="1.02" departed="17" arrived="0" entered="0" left="17" laneChangedFrom="0" laneChangedTo="0" flow="282.90"/>
        <edge id="4fo" sampledSeconds="33.84" traveltime="3.27" overlapTraveltime="3.68" density="3.94" overlapDensity="4.07" laneDensity="3.94" occupancy="2.17" waitingTime="0.00" timeLoss="0.33" speed="14.10" speedRelative="1.02" departed="0" arrived="10" entered="10" left="0" laneChangedFrom="0" laneChangedTo="0" flow="199.96"/>
        <edge id="4o" sampledSeconds="99.80" traveltime="8.94" overlapTraveltime="9.35" density="4.19" overlapDensity="4.37" laneDensity="4.19" occupancy="2.40" waitingTime="0.00" timeLoss="0.93" speed="14.18" speedRelative="1.02" departed="0" arrived="0" entered="11" left="10" laneChangedFrom="0" laneChangedTo="0" flow="214.13"/>
        <edge id="4si" sampledSeconds="479.71" traveltime="28.66" overlapTraveltime="29.77" density="20.63" overlapDensity="21.01" laneDensity="10.31" occupancy="8.67" waitingTime="306.60" timeLoss="326.30" speed="4.54" speedRelative="0.33" departed="0" arrived="0" entered="17" left="13" laneChangedFrom="0" laneChangedTo="0" flow="328.72"/>
    </interval>
    <interval begin="0.00" end="180.00" id="hbefa">
        <edge id="1fi" sampledSeconds="62.38" CO_abs="1282.74" CO2_abs="167753.13" HC_abs="8.57" PMx_abs="19.55" NOx_abs="61.21" fuel_abs="54383.35" electricity_abs="0.00"
            CO_normed="630.34" CO2_normed="82433.97" HC_normed="4.21" PMx_normed="9.61" NOx_normed="30.08" fuel_normed="26724.00" electricity_normed="0.00"
            traveltime="2.88" CO_perVeh="59.29" CO2_perVeh="7753.30" HC_perVeh="0.40" PMx_perVeh="0.90" NOx_perVeh="2.83" fuel_perVeh="2513.52" electricity_perVeh="0.00"/>
        <edge id="1fo" sampledSeconds="20.15" CO_abs="277.98" CO2_abs="42554.83" HC_abs="1.87" PMx_abs="5.92" NOx_abs="15.51" fuel_abs="13795.78" electricity_abs="0.00"
            CO_normed="136.60" CO2_normed="20911.46" HC_normed="0.92" PMx_normed="2.91" NOx_normed="7.62" fuel_normed="6779.25" electricity_normed="0.00"
            traveltime="2.88" CO_perVeh="39.71" CO2_perVeh="6079.26" HC_perVeh="0.27" PMx_perVeh="0.85" NOx_perVeh="2.22" fuel_perVeh="1970.83" electricity_perVeh="0.00"/>
        <edge id="1o" sampledSeconds="69.84" CO_abs="1652.22" CO2_abs="232791.79" HC_abs="11.00" PMx_abs="23.24" NOx_abs="81.90" fuel_abs="75467.87" electricity_abs="0.00"
            CO_normed="243.56" CO2_normed="34317.36" HC_normed="1.62" PMx_normed="3.43" NOx_normed="12.07" fuel_normed="11125.21" electricity_normed="0.00"
            traveltime="9.98" CO_perVeh="236.03" CO2_perVeh="33255.97" HC_perVeh="1.57" PMx_perVeh="3.32" NOx_perVeh="11.70" fuel_perVeh="10781.12" electricity_perVeh="0.00"/>
        <edge id="1si" sampledSeconds="2573.94" CO_abs="1442.56" CO2_abs="3749444.59" HC_abs="9.73" PMx_abs="32.31" NOx_abs="1503.90" fuel_abs="1215548.99" electricity_abs="0.00"
            CO_normed="212.53" CO2_normed="552404.36" HC_normed="1.43" PMx_normed="4.76" NOx_normed="221.57" fuel_normed="179086.41" electricity_normed="0.00"
            traveltime="149.51" CO_perVeh="83.79" CO2_perVeh="217787.58" HC_perVeh="0.57" PMx_perVeh="1.88" NOx_perVeh="87.35" fuel_perVeh="70605.52" electricity_perVeh="0.00"/>
        <edge id="2fi" sampledSeconds="72.39" CO_abs="1671.71" CO2_abs="213376.00" HC_abs="11.16" PMx_abs="24.17" NOx_abs="77.90" fuel_abs="69173.63" electricity_abs="0.00"
            CO_normed="682.33" CO2_normed="87092.24" HC_normed="4.56" PMx_normed="9.87" NOx_normed="31.80" fuel_normed="28234.13" electricity_normed="0.00"
            traveltime="3.43" CO_perVeh="79.16" CO2_perVeh="10103.32" HC_perVeh="0.53" PMx_perVeh="1.14" NOx_perVeh="3.69" fuel_perVeh="3275.36" electricity_perVeh="0.00"/>
        <edge id="2fo" sampledSeconds="16.93" CO_abs="229.42" CO2_abs="35578.19" HC_abs="1.55" PMx_abs="5.32" NOx_abs="13.03" fuel_abs="11534.05" electricity_abs="0.00"
            CO_normed="93.64" CO2_normed="14521.71" HC_normed="0.63" PMx_normed="2.17" NOx_normed="5.32" fuel_normed="4707.78" electricity_normed="0.00"
            traveltime="3.39" CO_perVeh="45.88" CO2_perVeh="7115.64" HC_perVeh="0.31" PMx_perVeh="1.06" NOx_perVeh="2.61" fuel_perVeh="2306.81" electricity_perVeh="0.00"/>
        <edge id="2o" sampledSeconds="45.96" CO_abs="1225.41" CO2_abs="164022.22" HC_abs="8.16" PMx_abs="15.82" NOx_abs="57.93" fuel_abs="53173.68" electricity_abs="0.00"
            CO_normed="192.87" CO2_normed="25816.04" HC_normed="1.28" PMx_normed="2.49" NOx_normed="9.12" fuel_normed="8369.19" electricity_normed="0.00"
            traveltime="9.19" CO_perVeh="245.08" CO2_perVeh="32804.44" HC_perVeh="1.63" PMx_perVeh="3.16" NOx_perVeh="11.59" fuel_perVeh="10634.74" electricity_perVeh="0.00"/>
        <edge id="2si" sampledSeconds="2223.82" CO_abs="1427.84" CO2_abs="3231435.89" HC_abs="9.63" PMx_abs="31.51" NOx_abs="1295.61" fuel_abs="1047613.34" electricity_abs="0.00"
            CO_normed="224.75" CO2_normed="508647.24" HC_normed="1.52" PMx_normed="4.96" NOx_normed="203.94" fuel_normed="164900.57" electricity_normed="0.00"
            traveltime="124.81" CO_perVeh="80.13" CO2_perVeh="181356.35" HC_perVeh="0.54" PMx_perVeh="1.77" NOx_perVeh="72.71" fuel_perVeh="58794.71" electricity_perVeh="0.00"/>
        <edge id="3fi" sampledSeconds="62.26" CO_abs="1266.62" CO2_abs="168470.20" HC_abs="8.47" PMx_abs="20.17" NOx_abs="61.48" fuel_abs="54615.85" electricity_abs="0.00"
            CO_normed="549.15" CO2_normed="73041.49" HC_normed="3.67" PMx_normed="8.74" NOx_normed="26.65" fuel_normed="23679.10" electricity_normed="0.00"
            traveltime="3.24" CO_perVeh="65.82" CO2_perVeh="8755.08" HC_perVeh="0.44" PMx_perVeh="1.05" NOx_perVeh="3.19" fuel_perVeh="2838.28" electricity_perVeh="0.00"/>
        <edge id="3fo" sampledSeconds="16.06" CO_abs="213.35" CO2_abs="32962.10" HC_abs="1.44" PMx_abs="4.78" NOx_abs="12.07" fuel_abs="10685.94" electricity_abs="0.00"
            CO_normed="92.50" CO2_normed="14290.96" HC_normed="0.62" PMx_normed="2.07" NOx_normed="5.23" fuel_normed="4632.97" electricity_normed="0.00"
            traveltime="3.21" CO_perVeh="42.67" CO2_perVeh="6592.42" HC_perVeh="0.29" PMx_perVeh="0.96" NOx_perVeh="2.41" fuel_perVeh="2137.19" electricity_perVeh="0.00"/>
        <edge id="3o" sampledSeconds="46.58" CO_abs="659.34" CO2_abs="98694.30" HC_abs="4.45" PMx_abs="14.15" NOx_abs="36.17" fuel_abs="31995.55" electricity_abs="0.00"
            CO_normed="102.61" CO2_normed="15359.79" HC_normed="0.69" PMx_normed="2.20" NOx_normed="5.63" fuel_normed="4979.46" electricity_normed="0.00"
            traveltime="8.88" CO_perVeh="125.71" CO2_perVeh="18816.76" HC_perVeh="0.85" PMx_perVeh="2.70" NOx_perVeh="6.90" fuel_perVeh="6100.18" electricity_perVeh="0.00"/>
        <edge id="3si" sampledSeconds="513.96" CO_abs="2502.10" CO2_abs="847801.73" HC_abs="16.84" PMx_abs="52.59" NOx_abs="327.46" fuel_abs="274850.44" electricity_abs="0.00"
            CO_normed="389.34" CO2_normed="131922.78" HC_normed="2.62" PMx_normed="8.18" NOx_normed="50.96" fuel_normed="42768.29" electricity_normed="0.00"
            traveltime="24.28" CO_perVeh="118.21" CO2_perVeh="40052.98" HC_perVeh="0.80" PMx_perVeh="2.48" NOx_perVeh="15.47" fuel_perVeh="12984.85" electricity_perVeh="0.00"/>
        <edge id="4fi" sampledSeconds="45.94" CO_abs="894.26" CO2_abs="119982.09" HC_abs="5.98" PMx_abs="14.50" NOx_abs="43.82" fuel_abs="38896.64" electricity_abs="0.00"
            CO_normed="387.71" CO2_normed="52019.12" HC_normed="2.59" PMx_normed="6.29" NOx_normed="19.00" fuel_normed="16863.93" electricity_normed="0.00"
            traveltime="3.25" CO_perVeh="63.22" CO2_perVeh="8482.28" HC_perVeh="0.42" PMx_perVeh="1.02" NOx_perVeh="3.10" fuel_perVeh="2749.85" electricity_perVeh="0.00"/>
        <edge id="4fo" sampledSeconds="32.71" CO_abs="424.81" CO2_abs="68165.44" HC_abs="2.87" PMx_abs="9.93" NOx_abs="24.87" fuel_abs="22098.47" electricity_abs="0.00"
            CO_normed="184.18" CO2_normed="29553.63" HC_normed="1.24" PMx_normed="4.30" NOx_normed="10.78" fuel_normed="9580.95" electricity_normed="0.00"
            traveltime="3.27" CO_perVeh="42.49" CO2_perVeh="6817.79" HC_perVeh="0.29" PMx_perVeh="0.99" NOx_perVeh="2.49" fuel_perVeh="2210.25" electricity_perVeh="0.00"/>
        <edge id="4o" sampledSeconds="95.71" CO_abs="1271.14" CO2_abs="197601.34" HC_abs="8.57" PMx_abs="28.14" NOx_abs="72.15" fuel_abs="64060.09" electricity_abs="0.00"
            CO_normed="200.46" CO2_normed="31162.49" HC_normed="1.35" PMx_normed="4.44" NOx_normed="11.38" fuel_normed="10102.52" electricity_normed="0.00"
            traveltime="8.94" CO_perVeh="118.73" CO2_perVeh="18456.30" HC_perVeh="0.80" PMx_perVeh="2.63" NOx_perVeh="6.74" fuel_perVeh="5983.32" electricity_perVeh="0.00"/>
        <edge id="4si" sampledSeconds="471.01" CO_abs="1797.48" CO2_abs="748139.04" HC_abs="12.12" PMx_abs="39.21" NOx_abs="291.25" fuel_abs="242541.02" electricity_abs="0.00"
            CO_normed="283.40" CO2_normed="117956.49" HC_normed="1.91" PMx_normed="6.18" NOx_normed="45.92" fuel_normed="38240.60" electricity_normed="0.00"
            traveltime="28.66" CO_perVeh="109.36" CO2_perVeh="45517.97" HC_perVeh="0.74" PMx_perVeh="2.39" NOx_perVeh="17.72" fuel_perVeh="14756.58" electricity_perVeh="0.00"/>
    </interval>
</meandata>
