<?xml version="1.0" encoding="UTF-8"?>

<!-- generated on 2026-04-26T14:22:07.800701+02:00 by Eclipse SUMO sumo 1.26.0
<sumoConfiguration xmlns:xsi="http://www.w3.org/2001/XMLSchema-instance" xsi:noNamespaceSchemaLocation="http://sumo.dlr.de/xsd/sumoConfiguration.xsd">

    <input>
        <net-file value="/Users/hasanhaidar/Documents/GitHub/LightMind/baselines/traffic_networks/Main_training_real/bologna_pasubio/pasubio_buslanes.net.xml"/>
        <route-files value="/Users/hasanhaidar/Documents/GitHub/LightMind/baselines/traffic_networks/Main_training_real/bologna_pasubio/pasubio.rou.xml"/>
        <additional-files value="/Users/hasanhaidar/Documents/GitHub/LightMind/baselines/traffic_networks/Main_training_real/bologna_pasubio/pasubio_vtypes.add.xml,/Users/hasanhaidar/Documents/GitHub/LightMind/baselines/traffic_networks/Main_training_real/bologna_pasubio/pasubio_bus_stops.add.xml,/Users/hasanhaidar/Documents/GitHub/LightMind/baselines/traffic_networks/Main_training_real/bologna_pasubio/pasubio_busses.rou.xml,/Users/hasanhaidar/Documents/GitHub/LightMind/baselines/traffic_networks/Main_training_real/bologna_pasubio/pasubio_detectors.add.xml,/Users/hasanhaidar/Documents/GitHub/LightMind/baselines/traffic_networks/Main_training_real/bologna_pasubio/pasubio_tls.add.xml"/>
    </input>

    <output>
        <tripinfo-output value="/Users/hasanhaidar/Documents/GitHub/LightMind/baselines/traffic_networks/Main_training_real/bologna_pasubio/tripinfos.xml"/>
    </output>

    <report>
        <log value="/Users/hasanhaidar/Documents/GitHub/LightMind/baselines/traffic_networks/Main_training_real/bologna_pasubio/sumo_log.txt"/>
        <no-step-log value="true"/>
    </report>

    <traci_server>
        <remote-port value="50488"/>
    </traci_server>

    <random_number>
        <seed value="4"/>
    </random_number>

</sumoConfiguration>
-->

<tripinfos xmlns:xsi="http://www.w3.org/2001/XMLSchema-instance" xsi:noNamespaceSchemaLocation="http://sumo.dlr.de/xsd/tripinfo_file.xsd">
    <tripinfo id="Pertini_20_0" depart="0.00" departLane="63[0]_2" departPos="0.00" departSpeed="0.00" departDelay="0.00" arrival="75.00" arrivalLane="4[1][1][1]_0" arrivalPos="170.54" arrivalSpeed="14.06" duration="75.00" routeLength="895.82" waitingTime="3.00" waitingCount="1" stopTime="0.00" timeLoss="13.85" rerouteNo="0" devices="tripinfo_Pertini_20_0" vType="passenger2a" speedFactor="1.06" vaporized=""/>
    <tripinfo id="Pertini_20_2" depart="4.00" departLane="63[0]_1" departPos="0.00" departSpeed="0.00" departDelay="0.00" arrival="77.00" arrivalLane="4[1][1][1]_1" arrivalPos="170.54" arrivalSpeed="13.59" duration="73.00" routeLength="895.82" waitingTime="0.00" waitingCount="0" stopTime="0.00" timeLoss="7.15" rerouteNo="0" devices="tripinfo_Pertini_20_2" vType="passenger3" speedFactor="0.98" vaporized=""/>
    <tripinfo id="Pertini_20_9" depart="19.00" departLane="63[0]_1" departPos="0.00" departSpeed="0.00" departDelay="0.00" arrival="81.00" arrivalLane="4[1][1][1]_1" arrivalPos="170.54" arrivalSpeed="14.69" duration="62.00" routeLength="882.71" waitingTime="0.00" waitingCount="0" stopTime="0.00" timeLoss="4.96" rerouteNo="0" devices="tripinfo_Pertini_20_9" vType="passenger2b" speedFactor="1.13" vaporized=""/>
    <tripinfo id="Prati_Capraia_10_0" depart="0.00" departLane="3[0]_0" departPos="0.00" departSpeed="0.00" departDelay="0.00" arrival="82.00" arrivalLane="10_0" arrivalPos="223.30" arrivalSpeed="10.83" duration="82.00" routeLength="409.63" waitingTime="38.00" waitingCount="1" stopTime="0.00" timeLoss="47.21" rerouteNo="0" devices="tripinfo_Prati_Capraia_10_0" vType="passenger1" speedFactor="0.87" vaporized=""/>
    <tripinfo id="Pertini_20_1" depart="2.00" departLane="63[0]_2" departPos="0.00" departSpeed="0.00" departDelay="0.00" arrival="82.00" arrivalLane="4[1][1][1]_0" arrivalPos="170.54" arrivalSpeed="12.12" duration="80.00" routeLength="895.82" waitingTime="0.00" waitingCount="0" stopTime="0.00" timeLoss="10.53" rerouteNo="0" devices="tripinfo_Pertini_20_1" vType="passenger2b" speedFactor="0.93" vaporized=""/>
    <tripinfo id="Prati_Capraia_10_1" depart="4.00" departLane="3[0]_0" departPos="0.00" departSpeed="0.00" departDelay="0.00" arrival="84.00" arrivalLane="10_0" arrivalPos="223.30" arrivalSpeed="14.43" duration="80.00" routeLength="409.63" waitingTime="37.00" waitingCount="1" stopTime="0.00" timeLoss="52.56" rerouteNo="0" devices="tripinfo_Prati_Capraia_10_1" vType="passenger2b" speedFactor="1.13" vaporized=""/>
    <tripinfo id="Pertini_20_7" depart="15.00" departLane="63[0]_2" departPos="0.00" departSpeed="0.00" departDelay="0.00" arrival="86.00" arrivalLane="4[1][1][1]_0" arrivalPos="170.54" arrivalSpeed="13.02" duration="71.00" routeLength="895.82" waitingTime="0.00" waitingCount="0" stopTime="0.00" timeLoss="6.46" rerouteNo="0" devices="tripinfo_Pertini_20_7" vType="passenger1" speedFactor="1.01" vaporized=""/>
    <tripinfo id="Prati_Capraia_10_7" depart="34.00" departLane="3[0]_0" departPos="0.00" departSpeed="0.00" departDelay="0.00" arrival="89.00" arrivalLane="10_0" arrivalPos="223.30" arrivalSpeed="12.79" duration="55.00" routeLength="409.63" waitingTime="11.00" waitingCount="1" stopTime="0.00" timeLoss="22.92" rerouteNo="0" devices="tripinfo_Prati_Capraia_10_7" vType="passenger5" speedFactor="0.96" vaporized=""/>
    <tripinfo id="Certosa_9_0" depart="0.00" departLane="22[0]_1" departPos="0.00" departSpeed="0.00" departDelay="0.00" arrival="91.00" arrivalLane="2[1][1][1]b_2" arrivalPos="324.74" arrivalSpeed="14.99" duration="91.00" routeLength="602.57" waitingTime="39.00" waitingCount="1" stopTime="0.00" timeLoss="52.50" rerouteNo="0" devices="tripinfo_Certosa_9_0" vType="passenger1" speedFactor="1.15" vaporized=""/>
    <tripinfo id="Pertini_20_10" depart="21.00" departLane="63[0]_2" departPos="0.00" departSpeed="0.00" departDelay="0.00" arrival="95.00" arrivalLane="4[1][1][1]_0" arrivalPos="170.54" arrivalSpeed="11.94" duration="74.00" routeLength="895.82" waitingTime="0.00" waitingCount="0" stopTime="0.00" timeLoss="6.36" rerouteNo="0" devices="tripinfo_Pertini_20_10" vType="passenger2a" speedFactor="0.96" vaporized=""/>
    <tripinfo id="Prati_Capraia_100_5" depart="24.00" departLane="3[0]_0" departPos="0.00" departSpeed="0.00" departDelay="0.00" arrival="99.00" arrivalLane="3[1]b_1" arrivalPos="238.77" arrivalSpeed="15.03" duration="75.00" routeLength="624.48" waitingTime="21.00" waitingCount="1" stopTime="0.00" timeLoss="32.80" rerouteNo="0" devices="tripinfo_Prati_Capraia_100_5" vType="passenger2a" speedFactor="1.08" vaporized=""/>
    <tripinfo id="Prati_Capraia_100_2" depart="9.00" departLane="3[0]_1" departPos="0.00" departSpeed="0.00" departDelay="0.00" arrival="100.00" arrivalLane="3[1]b_0" arrivalPos="238.77" arrivalSpeed="12.74" duration="91.00" routeLength="624.48" waitingTime="33.00" waitingCount="1" stopTime="0.00" timeLoss="44.61" rerouteNo="0" devices="tripinfo_Prati_Capraia_100_2" vType="passenger2a" speedFactor="0.98" vaporized=""/>
    <tripinfo id="Pertini_20_12" depart="25.00" departLane="63[0]_2" departPos="0.00" departSpeed="0.00" departDelay="0.00" arrival="100.00" arrivalLane="4[1][1][1]_1" arrivalPos="170.54" arrivalSpeed="12.34" duration="75.00" routeLength="882.71" waitingTime="0.00" waitingCount="0" stopTime="0.00" timeLoss="6.13" rerouteNo="0" devices="tripinfo_Pertini_20_12" vType="passenger1" speedFactor="0.93" vaporized=""/>
    <tripinfo id="Pertini_20_14" depart="30.00" departLane="63[0]_1" departPos="0.00" departSpeed="0.00" departDelay="0.00" arrival="101.00" arrivalLane="4[1][1][1]_0" arrivalPos="170.54" arrivalSpeed="13.62" duration="71.00" routeLength="895.82" waitingTime="0.00" waitingCount="0" stopTime="0.00" timeLoss="6.18" rerouteNo="0" devices="tripinfo_Pertini_20_14" vType="passenger1" speedFactor="1.00" vaporized=""/>
    <tripinfo id="Gandhi_80_11" depart="17.00" departLane="1[0]_0" departPos="0.00" departSpeed="0.00" departDelay="0.00" arrival="103.00" arrivalLane="21_0" arrivalPos="89.26" arrivalSpeed="13.05" duration="86.00" routeLength="512.45" waitingTime="37.00" waitingCount="1" stopTime="0.00" timeLoss="47.85" rerouteNo="0" devices="tripinfo_Gandhi_80_11" vType="passenger1" speedFactor="1.00" vaporized=""/>
    <tripinfo id="Pertini_20_11" depart="23.00" departLane="63[0]_1" departPos="0.00" departSpeed="0.00" departDelay="0.00" arrival="103.00" arrivalLane="4[1][1][1]_0" arrivalPos="170.54" arrivalSpeed="12.22" duration="80.00" routeLength="895.82" waitingTime="0.00" waitingCount="0" stopTime="0.00" timeLoss="8.37" rerouteNo="0" devices="tripinfo_Pertini_20_11" vType="passenger2b" speedFactor="0.90" vaporized=""/>
    <tripinfo id="Pertini_20_15" depart="32.00" departLane="63[0]_2" departPos="0.00" departSpeed="0.00" departDelay="0.00" arrival="103.00" arrivalLane="4[1][1][1]_1" arrivalPos="170.54" arrivalSpeed="14.65" duration="71.00" routeLength="882.71" waitingTime="0.00" waitingCount="0" stopTime="0.00" timeLoss="10.81" rerouteNo="0" devices="tripinfo_Pertini_20_15" vType="passenger2a" speedFactor="1.06" vaporized=""/>
    <tripinfo id="Pertini_20_16" depart="34.00" departLane="63[0]_1" departPos="0.00" departSpeed="0.00" departDelay="0.00" arrival="105.00" arrivalLane="4[1][1][1]_1" arrivalPos="170.54" arrivalSpeed="14.92" duration="71.00" routeLength="895.82" waitingTime="0.00" waitingCount="0" stopTime="0.00" timeLoss="14.51" rerouteNo="0" devices="tripinfo_Pertini_20_16" vType="passenger3" speedFactor="1.15" vaporized=""/>
    <tripinfo id="Prati_Capraia_100_9" depart="43.00" departLane="3[0]_0" departPos="0.00" departSpeed="0.00" departDelay="0.00" arrival="106.00" arrivalLane="3[1]b_0" arrivalPos="238.77" arrivalSpeed="12.50" duration="63.00" routeLength="624.48" waitingTime="4.00" waitingCount="1" stopTime="0.00" timeLoss="16.18" rerouteNo="0" devices="tripinfo_Prati_Capraia_100_9" vType="passenger4" speedFactor="0.96" vaporized=""/>
    <tripinfo id="Prati_Capraia_100_11" depart="53.00" departLane="3[0]_0" departPos="0.00" departSpeed="0.00" departDelay="0.00" arrival="106.00" arrivalLane="3[1]b_1" arrivalPos="238.77" arrivalSpeed="13.85" duration="53.00" routeLength="624.48" waitingTime="0.00" waitingCount="0" stopTime="0.00" timeLoss="9.39" rerouteNo="0" devices="tripinfo_Prati_Capraia_100_11" vType="passenger2a" speedFactor="1.04" vaporized=""/>
    <tripinfo id="Prati_Capraia_100_12" depart="58.00" departLane="3[0]_1" departPos="0.00" departSpeed="0.00" departDelay="0.00" arrival="108.00" arrivalLane="3[1]b_0" arrivalPos="238.77" arrivalSpeed="14.01" duration="50.00" routeLength="624.48" waitingTime="0.00" waitingCount="0" stopTime="0.00" timeLoss="5.72" rerouteNo="0" devices="tripinfo_Prati_Capraia_100_12" vType="passenger1" speedFactor="1.03" vaporized=""/>
    <tripinfo id="Pertini_20_18" depart="38.00" departLane="63[0]_1" departPos="0.00" departSpeed="0.00" departDelay="0.00" arrival="110.00" arrivalLane="4[1][1][1]_0" arrivalPos="170.54" arrivalSpeed="13.52" duration="72.00" routeLength="895.82" waitingTime="0.00" waitingCount="0" stopTime="0.00" timeLoss="5.79" rerouteNo="0" devices="tripinfo_Pertini_20_18" vType="passenger2b" speedFactor="0.98" vaporized=""/>
    <tripinfo id="Prati_Capraia_100_8" depart="38.00" departLane="3[0]_1" departPos="0.00" departSpeed="0.00" departDelay="0.00" arrival="110.00" arrivalLane="3[1]b_0" arrivalPos="238.77" arrivalSpeed="14.38" duration="72.00" routeLength="624.48" waitingTime="14.00" waitingCount="2" stopTime="0.00" timeLoss="30.20" rerouteNo="0" devices="tripinfo_Prati_Capraia_100_8" vType="passenger2a" speedFactor="1.09" vaporized=""/>
    <tripinfo id="Pertini_20_17" depart="36.00" departLane="63[0]_2" departPos="0.00" departSpeed="0.00" departDelay="0.00" arrival="113.00" arrivalLane="4[1][1][1]_0" arrivalPos="170.54" arrivalSpeed="11.93" duration="77.00" routeLength="882.71" waitingTime="0.00" waitingCount="0" stopTime="0.00" timeLoss="6.14" rerouteNo="0" devices="tripinfo_Pertini_20_17" vType="passenger1" speedFactor="0.91" vaporized=""/>
    <tripinfo id="Prati_Capraia_100_13" depart="63.00" departLane="3[0]_0" departPos="0.00" departSpeed="0.00" departDelay="0.00" arrival="113.00" arrivalLane="3[1]b_0" arrivalPos="238.77" arrivalSpeed="13.15" duration="50.00" routeLength="624.48" waitingTime="0.00" waitingCount="0" stopTime="0.00" timeLoss="5.14" rerouteNo="0" devices="tripinfo_Prati_Capraia_100_13" vType="passenger1" speedFactor="1.02" vaporized=""/>
    <tripinfo id="Prati_Capraia_100_3" depart="14.00" departLane="3[0]_0" departPos="0.00" departSpeed="0.00" departDelay="0.00" arrival="116.00" arrivalLane="3[1]b_0" arrivalPos="238.77" arrivalSpeed="14.38" duration="102.00" routeLength="624.48" waitingTime="43.00" waitingCount="2" stopTime="0.00" timeLoss="57.96" rerouteNo="0" devices="tripinfo_Prati_Capraia_100_3" vType="passenger3" speedFactor="1.04" vaporized=""/>
    <tripinfo id="Prati_Capraia_100_4" depart="19.00" departLane="3[0]_1" departPos="0.00" departSpeed="0.00" departDelay="0.00" arrival="116.00" arrivalLane="3[1]b_1" arrivalPos="238.77" arrivalSpeed="14.54" duration="97.00" routeLength="624.48" waitingTime="39.00" waitingCount="2" stopTime="0.00" timeLoss="55.49" rerouteNo="0" devices="tripinfo_Prati_Capraia_100_4" vType="passenger3" speedFactor="1.10" vaporized=""/>
    <tripinfo id="Pertini_20_19" depart="40.00" departLane="63[0]_2" departPos="0.00" departSpeed="0.00" departDelay="0.00" arrival="117.00" arrivalLane="4[1][1][1]_0" arrivalPos="170.54" arrivalSpeed="11.89" duration="77.00" routeLength="895.82" waitingTime="0.00" waitingCount="0" stopTime="0.00" timeLoss="6.63" rerouteNo="0" devices="tripinfo_Pertini_20_19" vType="passenger1" speedFactor="0.92" vaporized=""/>
    <tripinfo id="Prati_Capraia_100_10" depart="48.00" departLane="3[0]_1" departPos="0.00" departSpeed="0.00" departDelay="0.00" arrival="119.00" arrivalLane="3[1]b_0" arrivalPos="238.77" arrivalSpeed="13.20" duration="71.00" routeLength="624.48" waitingTime="4.00" waitingCount="2" stopTime="0.00" timeLoss="27.76" rerouteNo="0" devices="tripinfo_Prati_Capraia_100_10" vType="passenger1" speedFactor="1.04" vaporized=""/>
    <tripinfo id="Saffi_30_4" depart="11.00" departLane="12_0" departPos="0.00" departSpeed="0.00" departDelay="0.00" arrival="120.00" arrivalLane="70_0" arrivalPos="59.87" arrivalSpeed="12.63" duration="109.00" routeLength="1144.73" waitingTime="4.00" waitingCount="2" stopTime="0.00" timeLoss="24.98" rerouteNo="0" devices="tripinfo_Saffi_30_4" vType="passenger1" speedFactor="1.00" vaporized=""/>
    <tripinfo id="Sabotino_9_3" depart="27.00" departLane="41_0" departPos="0.00" departSpeed="0.00" departDelay="0.00" arrival="120.00" arrivalLane="2[1][1][1]b_1" arrivalPos="324.74" arrivalSpeed="13.55" duration="93.00" routeLength="1123.23" waitingTime="4.00" waitingCount="1" stopTime="0.00" timeLoss="17.18" rerouteNo="0" devices="tripinfo_Sabotino_9_3" vType="passenger2b" speedFactor="1.07" vaporized=""/>
    <tripinfo id="Sabotino_9_0" depart="0.00" departLane="41_0" departPos="0.00" departSpeed="0.00" departDelay="0.00" arrival="121.00" arrivalLane="2[1][1][1]b_0" arrivalPos="324.74" arrivalSpeed="14.36" duration="121.00" routeLength="1123.23" waitingTime="24.00" waitingCount="2" stopTime="0.00" timeLoss="42.26" rerouteNo="0" devices="tripinfo_Sabotino_9_0" vType="passenger3" speedFactor="1.04" vaporized=""/>
    <tripinfo id="Sabotino_9_4" depart="36.00" departLane="41_0" departPos="0.00" departSpeed="0.00" departDelay="0.00" arrival="122.00" arrivalLane="2[1][1][1]b_2" arrivalPos="324.74" arrivalSpeed="14.87" duration="86.00" routeLength="1123.23" waitingTime="0.00" waitingCount="0" stopTime="0.00" timeLoss="13.30" rerouteNo="0" devices="tripinfo_Sabotino_9_4" vType="passenger3" speedFactor="1.12" vaporized=""/>
    <tripinfo id="Pertini_20_22" depart="47.00" departLane="63[0]_2" departPos="0.00" departSpeed="0.00" departDelay="0.00" arrival="122.00" arrivalLane="4[1][1][1]_0" arrivalPos="170.54" arrivalSpeed="13.42" duration="75.00" routeLength="882.71" waitingTime="0.00" waitingCount="0" stopTime="0.00" timeLoss="11.18" rerouteNo="0" devices="tripinfo_Pertini_20_22" vType="passenger3" speedFactor="1.00" vaporized=""/>
    <tripinfo id="Sabotino_9_2" depart="18.00" departLane="41_0" departPos="0.00" departSpeed="0.00" departDelay="0.00" arrival="124.00" arrivalLane="2[1][1][1]b_0" arrivalPos="324.74" arrivalSpeed="11.66" duration="106.00" routeLength="1123.23" waitingTime="1.00" waitingCount="1" stopTime="0.00" timeLoss="14.11" rerouteNo="0" devices="tripinfo_Sabotino_9_2" vType="passenger1" speedFactor="0.89" vaporized=""/>
    <tripinfo id="Prati_Capraia_100_14" depart="68.00" departLane="3[0]_1" departPos="0.00" departSpeed="0.00" departDelay="0.00" arrival="126.00" arrivalLane="3[1]b_0" arrivalPos="238.77" arrivalSpeed="12.28" duration="58.00" routeLength="624.48" waitingTime="0.00" waitingCount="0" stopTime="0.00" timeLoss="10.99" rerouteNo="0" devices="tripinfo_Prati_Capraia_100_14" vType="passenger2b" speedFactor="0.96" vaporized=""/>
    <tripinfo id="Prati_Capraia_100_16" depart="77.00" departLane="3[0]_0" departPos="0.00" departSpeed="0.00" departDelay="0.00" arrival="126.00" arrivalLane="3[1]b_1" arrivalPos="238.77" arrivalSpeed="13.74" duration="49.00" routeLength="624.48" waitingTime="0.00" waitingCount="0" stopTime="0.00" timeLoss="5.03" rerouteNo="0" devices="tripinfo_Prati_Capraia_100_16" vType="passenger3" speedFactor="1.04" vaporized=""/>
    <tripinfo id="Sabotino_9_1" depart="9.00" departLane="41_0" departPos="0.00" departSpeed="0.00" departDelay="0.00" arrival="129.00" arrivalLane="2[1][1][1]b_0" arrivalPos="324.74" arrivalSpeed="11.42" duration="120.00" routeLength="1123.23" waitingTime="7.00" waitingCount="1" stopTime="0.00" timeLoss="25.37" rerouteNo="0" devices="tripinfo_Sabotino_9_1" vType="passenger2b" speedFactor="0.86" vaporized=""/>
    <tripinfo id="Prati_Capraia_100_17" depart="82.00" departLane="3[0]_1" departPos="0.00" departSpeed="0.00" departDelay="0.00" arrival="129.00" arrivalLane="3[1]b_0" arrivalPos="238.77" arrivalSpeed="15.98" duration="47.00" routeLength="624.48" waitingTime="0.00" waitingCount="0" stopTime="0.00" timeLoss="8.02" rerouteNo="0" devices="tripinfo_Prati_Capraia_100_17" vType="passenger2b" speedFactor="1.16" vaporized=""/>
    <tripinfo id="Nigrisoli_50_6" depart="37.00" departLane="65_0" departPos="0.00" departSpeed="0.00" departDelay="0.00" arrival="133.00" arrivalLane="35[1][1][1][1]_0" arrivalPos="257.67" arrivalSpeed="13.87" duration="96.00" routeLength="1161.06" waitingTime="0.00" waitingCount="0" stopTime="0.00" timeLoss="11.36" rerouteNo="0" devices="tripinfo_Nigrisoli_50_6" vType="ignoring1" speedFactor="1.00" vaporized=""/>
    <tripinfo id="Pertini_20_21" depart="45.00" departLane="63[0]_1" departPos="0.00" departSpeed="0.00" departDelay="0.00" arrival="133.00" arrivalLane="4[1][1][1]_0" arrivalPos="170.54" arrivalSpeed="10.48" duration="88.00" routeLength="895.82" waitingTime="0.00" waitingCount="0" stopTime="0.00" timeLoss="7.85" rerouteNo="0" devices="tripinfo_Pertini_20_21" vType="passenger2a" speedFactor="0.81" vaporized=""/>
    <tripinfo id="Pertini_20_25" depart="53.00" departLane="63[0]_1" departPos="0.00" departSpeed="0.00" departDelay="0.00" arrival="134.00" arrivalLane="4[1][1][1]_0" arrivalPos="170.54" arrivalSpeed="13.20" duration="81.00" routeLength="895.82" waitingTime="2.00" waitingCount="1" stopTime="0.00" timeLoss="16.08" rerouteNo="0" devices="tripinfo_Pertini_20_25" vType="passenger2a" speedFactor="0.99" vaporized=""/>
    <tripinfo id="Prati_Capraia_10_19" depart="92.00" departLane="3[0]_0" departPos="0.00" departSpeed="0.00" departDelay="0.00" arrival="134.00" arrivalLane="10_0" arrivalPos="223.30" arrivalSpeed="10.96" duration="42.00" routeLength="409.63" waitingTime="0.00" waitingCount="0" stopTime="0.00" timeLoss="5.93" rerouteNo="0" devices="tripinfo_Prati_Capraia_10_19" vType="passenger3" speedFactor="0.85" vaporized=""/>
    <tripinfo id="Prati_Capraia_10_21" depart="102.00" departLane="3[0]_0" departPos="0.00" departSpeed="0.00" departDelay="0.00" arrival="137.00" arrivalLane="10_0" arrivalPos="223.30" arrivalSpeed="14.25" duration="35.00" routeLength="409.63" waitingTime="0.00" waitingCount="0" stopTime="0.00" timeLoss="5.32" rerouteNo="0" devices="tripinfo_Prati_Capraia_10_21" vType="passenger1" speedFactor="1.04" vaporized=""/>
    <tripinfo id="Sabotino_9_5" depart="45.00" departLane="41_0" departPos="0.00" departSpeed="0.00" departDelay="0.00" arrival="138.00" arrivalLane="2[1][1][1]b_0" arrivalPos="324.74" arrivalSpeed="13.82" duration="93.00" routeLength="1123.23" waitingTime="1.00" waitingCount="1" stopTime="0.00" timeLoss="14.25" rerouteNo="0" devices="tripinfo_Sabotino_9_5" vType="passenger1" speedFactor="1.03" vaporized=""/>
    <tripinfo id="Pertini_10_20" depart="43.00" departLane="63[0]_2" departPos="0.00" departSpeed="0.00" departDelay="0.00" arrival="140.00" arrivalLane="10_0" arrivalPos="223.30" arrivalSpeed="13.58" duration="97.00" routeLength="935.05" waitingTime="18.00" waitingCount="1" stopTime="0.00" timeLoss="27.76" rerouteNo="0" devices="tripinfo_Pertini_10_20" vType="passenger2a" speedFactor="0.98" vaporized=""/>
    <tripinfo id="Pertini_20_26" depart="55.00" departLane="63[0]_2" departPos="0.00" departSpeed="0.00" departDelay="0.00" arrival="141.00" arrivalLane="4[1][1][1]_0" arrivalPos="170.54" arrivalSpeed="13.60" duration="86.00" routeLength="895.82" waitingTime="4.00" waitingCount="1" stopTime="0.00" timeLoss="20.75" rerouteNo="0" devices="tripinfo_Pertini_20_26" vType="passenger2a" speedFactor="1.00" vaporized=""/>
    <tripinfo id="Montefiorino_60_7" depart="28.00" departLane="43_0" departPos="0.00" departSpeed="0.00" departDelay="0.00" arrival="142.00" arrivalLane="40[1]_0" arrivalPos="496.68" arrivalSpeed="13.12" duration="114.00" routeLength="1021.91" waitingTime="28.00" waitingCount="1" stopTime="0.00" timeLoss="40.36" rerouteNo="0" devices="tripinfo_Montefiorino_60_7" vType="passenger3" speedFactor="1.01" vaporized=""/>
    <tripinfo id="Prati_Capraia_100_18" depart="87.00" departLane="3[0]_0" departPos="0.00" departSpeed="0.00" departDelay="0.00" arrival="142.00" arrivalLane="3[1]b_0" arrivalPos="238.77" arrivalSpeed="12.04" duration="55.00" routeLength="624.48" waitingTime="0.00" waitingCount="0" stopTime="0.00" timeLoss="5.44" rerouteNo="0" devices="tripinfo_Prati_Capraia_100_18" vType="passenger3" speedFactor="0.92" vaporized=""/>
    <tripinfo id="Borgo_20_3" depart="18.00" departLane="6_1" departPos="0.00" departSpeed="0.00" departDelay="0.00" arrival="145.00" arrivalLane="4[1][1][1]_1" arrivalPos="170.54" arrivalSpeed="13.21" duration="127.00" routeLength="551.60" waitingTime="77.00" waitingCount="1" stopTime="0.00" timeLoss="88.50" rerouteNo="0" devices="tripinfo_Borgo_20_3" vType="passenger2b" speedFactor="1.05" vaporized=""/>
    <tripinfo id="Borgo_20_4" depart="24.00" departLane="6_1" departPos="0.00" departSpeed="0.00" departDelay="0.00" arrival="151.00" arrivalLane="4[1][1][1]_1" arrivalPos="170.54" arrivalSpeed="12.30" duration="127.00" routeLength="551.60" waitingTime="70.00" waitingCount="1" stopTime="0.00" timeLoss="81.10" rerouteNo="0" devices="tripinfo_Borgo_20_4" vType="passenger1" speedFactor="0.90" vaporized=""/>
    <tripinfo id="Prati_Capraia_100_20" depart="97.00" departLane="3[0]_1" departPos="0.00" departSpeed="0.00" departDelay="0.00" arrival="151.00" arrivalLane="3[1]b_0" arrivalPos="238.77" arrivalSpeed="12.40" duration="54.00" routeLength="624.48" waitingTime="0.00" waitingCount="0" stopTime="0.00" timeLoss="6.94" rerouteNo="0" devices="tripinfo_Prati_Capraia_100_20" vType="passenger5" speedFactor="0.96" vaporized=""/>
    <tripinfo id="Borgo_20_6" depart="36.00" departLane="6_1" departPos="0.00" departSpeed="0.00" departDelay="0.00" arrival="152.00" arrivalLane="4[1][1][1]_1" arrivalPos="170.54" arrivalSpeed="12.25" duration="116.00" routeLength="551.60" waitingTime="62.00" waitingCount="1" stopTime="0.00" timeLoss="78.03" rerouteNo="0" devices="tripinfo_Borgo_20_6" vType="passenger3" speedFactor="1.06" vaporized=""/>
    <tripinfo id="Borgo_20_7" depart="42.00" departLane="6_1" departPos="0.00" departSpeed="0.00" departDelay="0.00" arrival="154.00" arrivalLane="4[1][1][1]_1" arrivalPos="170.54" arrivalSpeed="14.42" duration="112.00" routeLength="551.60" waitingTime="59.00" waitingCount="1" stopTime="0.00" timeLoss="76.23" rerouteNo="0" devices="tripinfo_Borgo_20_7" vType="passenger1" speedFactor="1.15" vaporized=""/>
    <tripinfo id="Borgo_20_9" depart="54.00" departLane="6_1" departPos="0.00" departSpeed="0.00" departDelay="0.00" arrival="156.00" arrivalLane="4[1][1][1]_1" arrivalPos="170.54" arrivalSpeed="14.25" duration="102.00" routeLength="551.60" waitingTime="50.00" waitingCount="1" stopTime="0.00" timeLoss="64.71" rerouteNo="0" devices="tripinfo_Borgo_20_9" vType="passenger2a" speedFactor="1.11" vaporized=""/>
    <tripinfo id="Borgo_100_0" depart="0.00" departLane="6_0" departPos="0.00" departSpeed="0.00" departDelay="0.00" arrival="159.00" arrivalLane="3[1]b_0" arrivalPos="238.77" arrivalSpeed="14.30" duration="159.00" routeLength="797.07" waitingTime="94.00" waitingCount="1" stopTime="0.00" timeLoss="105.01" rerouteNo="0" devices="tripinfo_Borgo_100_0" vType="passenger5" speedFactor="1.09" vaporized=""/>
    <tripinfo id="Certosa_9_3" depart="109.00" departLane="22[0]_1" departPos="0.00" departSpeed="0.00" departDelay="0.00" arrival="161.00" arrivalLane="2[1][1][1]b_1" arrivalPos="324.74" arrivalSpeed="13.46" duration="52.00" routeLength="602.57" waitingTime="0.00" waitingCount="0" stopTime="0.00" timeLoss="5.91" rerouteNo="0" devices="tripinfo_Certosa_9_3" vType="passenger3" speedFactor="0.97" vaporized=""/>
    <tripinfo id="Borgo_100_2" depart="12.00" departLane="6_0" departPos="0.00" departSpeed="0.00" departDelay="0.00" arrival="163.00" arrivalLane="3[1]b_0" arrivalPos="238.77" arrivalSpeed="13.54" duration="151.00" routeLength="797.07" waitingTime="81.00" waitingCount="1" stopTime="0.00" timeLoss="93.83" rerouteNo="0" devices="tripinfo_Borgo_100_2" vType="passenger1" speedFactor="1.02" vaporized=""/>
    <tripinfo id="Borgo_100_8" depart="48.00" departLane="6_0" departPos="0.00" departSpeed="0.00" departDelay="0.00" arrival="163.00" arrivalLane="3[1]b_1" arrivalPos="238.77" arrivalSpeed="13.79" duration="115.00" routeLength="797.07" waitingTime="48.00" waitingCount="1" stopTime="0.00" timeLoss="60.92" rerouteNo="0" devices="tripinfo_Borgo_100_8" vType="passenger4" speedFactor="1.08" vaporized=""/>
    <tripinfo id="Sabotino_9_6" depart="54.00" departLane="41_0" departPos="0.00" departSpeed="0.00" departDelay="0.00" arrival="163.00" arrivalLane="2[1][1][1]b_0" arrivalPos="324.74" arrivalSpeed="12.99" duration="109.00" routeLength="1123.23" waitingTime="11.00" waitingCount="1" stopTime="0.00" timeLoss="25.51" rerouteNo="0" devices="tripinfo_Sabotino_9_6" vType="passenger1" speedFactor="0.98" vaporized=""/>
    <tripinfo id="Borgo_20_13" depart="79.00" departLane="6_1" departPos="0.00" departSpeed="0.00" departDelay="0.00" arrival="163.00" arrivalLane="4[1][1][1]_1" arrivalPos="170.54" arrivalSpeed="14.42" duration="84.00" routeLength="551.60" waitingTime="28.00" waitingCount="1" stopTime="0.00" timeLoss="44.97" rerouteNo="0" devices="tripinfo_Borgo_20_13" vType="passenger2b" speedFactor="1.05" vaporized=""/>
    <tripinfo id="Saffi_10_1" depart="4.00" departLane="12_0" departPos="0.00" departSpeed="0.00" departDelay="2.00" arrival="164.00" arrivalLane="10_0" arrivalPos="223.30" arrivalSpeed="13.43" duration="160.00" routeLength="1851.18" waitingTime="7.00" waitingCount="1" stopTime="0.00" timeLoss="28.14" rerouteNo="0" devices="tripinfo_Saffi_10_1" vType="passenger1" speedFactor="1.01" vaporized=""/>
    <tripinfo id="Pertini_102_24" depart="56.00" departLane="13[0]_0" departPos="0.00" departSpeed="0.00" departDelay="5.00" arrival="165.00" arrivalLane="29[0]_0" arrivalPos="129.99" arrivalSpeed="10.44" duration="109.00" routeLength="818.26" waitingTime="17.00" waitingCount="1" stopTime="0.00" timeLoss="31.41" rerouteNo="0" devices="tripinfo_Pertini_102_24" vType="passenger1" speedFactor="0.79" vaporized=""/>
    <tripinfo id="Montefiorino_80_0" depart="0.00" departLane="43_1" departPos="0.00" departSpeed="0.00" departDelay="0.00" arrival="167.00" arrivalLane="21_1" arrivalPos="89.26" arrivalSpeed="12.39" duration="167.00" routeLength="960.77" waitingTime="78.00" waitingCount="2" stopTime="0.00" timeLoss="94.80" rerouteNo="0" devices="tripinfo_Montefiorino_80_0" vType="passenger1" speedFactor="0.98" vaporized=""/>
    <tripinfo id="Borgo_100_15" depart="91.00" departLane="6_0" departPos="0.00" departSpeed="0.00" departDelay="0.00" arrival="170.00" arrivalLane="3[1]b_1" arrivalPos="238.77" arrivalSpeed="14.79" duration="79.00" routeLength="797.07" waitingTime="9.00" waitingCount="1" stopTime="0.00" timeLoss="24.79" rerouteNo="0" devices="tripinfo_Borgo_100_15" vType="passenger5" speedFactor="1.07" vaporized=""/>
    <tripinfo id="Borgo_100_11" depart="66.00" departLane="6_0" departPos="0.00" departSpeed="0.00" departDelay="0.00" arrival="171.00" arrivalLane="3[1]b_0" arrivalPos="238.77" arrivalSpeed="12.48" duration="105.00" routeLength="797.07" waitingTime="29.00" waitingCount="1" stopTime="0.00" timeLoss="42.22" rerouteNo="0" devices="tripinfo_Borgo_100_11" vType="passenger4" speedFactor="0.94" vaporized=""/>
    <tripinfo id="Montefiorino_80_8" depart="33.00" departLane="43_1" departPos="0.00" departSpeed="0.00" departDelay="0.00" arrival="174.00" arrivalLane="21_1" arrivalPos="89.26" arrivalSpeed="13.44" duration="141.00" routeLength="954.16" waitingTime="50.00" waitingCount="2" stopTime="0.00" timeLoss="71.75" rerouteNo="0" devices="tripinfo_Montefiorino_80_8" vType="passenger2a" speedFactor="1.00" vaporized=""/>